<?xml version="1.0" encoding="UTF-8"?>

<!-- generated on 2022-06-28 12:36:12 by Eclipse SUMO GUI Version 1.12.0
<configuration xmlns:xsi="http://www.w3.org/2001/XMLSchema-instance" xsi:noNamespaceSchemaLocation="http://sumo.dlr.de/xsd/sumoConfiguration.xsd">

    <input>
        <net-file value="paris.net.xml"/>
        <route-files value="paris.rou.xml"/>
    </input>

    <output>
        <summary-output value="summary.xml"/>
        <tripinfo-output value="tripinfo_1.xml"/>
    </output>

    <time>
        <begin value="0"/>
        <end value="3650"/>
    </time>

    <traci_server>
        <remote-port value="8873"/>
    </traci_server>

    <gui_only>
        <gui-settings-file value="network.settings.xml"/>
    </gui_only>

</configuration>
-->

<tripinfos xmlns:xsi="http://www.w3.org/2001/XMLSchema-instance" xsi:noNamespaceSchemaLocation="http://sumo.dlr.de/xsd/tripinfo_file.xsd">
    <tripinfo id="20" depart="20.00" departLane="-161357555#1_0" departPos="0.20" departSpeed="0.00" departDelay="0.00" arrival="49.00" arrivalLane="319899941#1_0" arrivalPos="21.89" arrivalSpeed="11.75" duration="29.00" routeLength="297.88" waitingTime="0.00" waitingCount="0" stopTime="0.00" timeLoss="12.80" rerouteNo="0" devices="tripinfo_20" vType="DEFAULT_VEHTYPE" speedFactor="0.94" vaporized=""/>
    <tripinfo id="53" depart="53.00" departLane="31544817#9_0" departPos="5.10" departSpeed="0.00" departDelay="0.00" arrival="106.00" arrivalLane="69674564#3_0" arrivalPos="35.87" arrivalSpeed="11.14" duration="53.00" routeLength="459.66" waitingTime="0.00" waitingCount="0" stopTime="0.00" timeLoss="11.17" rerouteNo="0" devices="tripinfo_53" vType="DEFAULT_VEHTYPE" speedFactor="0.85" vaporized=""/>
    <tripinfo id="15" depart="15.00" departLane="4450686#6_0" departPos="5.10" departSpeed="0.00" departDelay="0.00" arrival="108.00" arrivalLane="27245432_0" arrivalPos="0.93" arrivalSpeed="15.34" duration="93.00" routeLength="665.46" waitingTime="27.00" waitingCount="1" stopTime="0.00" timeLoss="48.16" rerouteNo="0" devices="tripinfo_15" vType="DEFAULT_VEHTYPE" speedFactor="1.12" vaporized=""/>
    <tripinfo id="58" depart="58.00" departLane="-314456033#2_0" departPos="5.10" departSpeed="0.00" departDelay="0.00" arrival="110.00" arrivalLane="24792892#0_0" arrivalPos="10.02" arrivalSpeed="6.40" duration="52.00" routeLength="559.47" waitingTime="0.00" waitingCount="0" stopTime="0.00" timeLoss="9.14" rerouteNo="0" devices="tripinfo_58" vType="DEFAULT_VEHTYPE" speedFactor="1.00" vaporized=""/>
    <tripinfo id="21" depart="21.00" departLane="4039129#1_0" departPos="5.10" departSpeed="0.00" departDelay="0.00" arrival="111.00" arrivalLane="4039896#4_1" arrivalPos="20.33" arrivalSpeed="9.20" duration="90.00" routeLength="904.82" waitingTime="0.00" waitingCount="0" stopTime="0.00" timeLoss="17.87" rerouteNo="0" devices="tripinfo_21" vType="DEFAULT_VEHTYPE" speedFactor="0.94" vaporized=""/>
    <tripinfo id="61" depart="61.00" departLane="22605479_0" departPos="5.10" departSpeed="0.00" departDelay="0.00" arrival="112.00" arrivalLane="68995797#1_0" arrivalPos="71.47" arrivalSpeed="14.61" duration="51.00" routeLength="516.16" waitingTime="0.00" waitingCount="0" stopTime="0.00" timeLoss="17.51" rerouteNo="0" devices="tripinfo_61" vType="DEFAULT_VEHTYPE" speedFactor="1.14" vaporized=""/>
    <tripinfo id="68" depart="68.00" departLane="255477765#0_0" departPos="5.10" departSpeed="0.00" departDelay="0.00" arrival="112.00" arrivalLane="24915806_0" arrivalPos="19.69" arrivalSpeed="12.39" duration="44.00" routeLength="448.64" waitingTime="0.00" waitingCount="0" stopTime="0.00" timeLoss="7.47" rerouteNo="0" devices="tripinfo_68" vType="DEFAULT_VEHTYPE" speedFactor="0.94" vaporized=""/>
    <tripinfo id="78" depart="78.00" departLane="84865087#0_0" departPos="5.10" departSpeed="0.00" departDelay="0.00" arrival="115.00" arrivalLane="25095051#1_0" arrivalPos="9.92" arrivalSpeed="8.57" duration="37.00" routeLength="255.18" waitingTime="2.00" waitingCount="1" stopTime="0.00" timeLoss="17.78" rerouteNo="0" devices="tripinfo_78" vType="DEFAULT_VEHTYPE" speedFactor="1.06" vaporized=""/>
    <tripinfo id="22" depart="22.00" departLane="4444151#1_0" departPos="0.20" departSpeed="0.00" departDelay="0.00" arrival="119.00" arrivalLane="-564199960#0_0" arrivalPos="17.38" arrivalSpeed="15.96" duration="97.00" routeLength="896.65" waitingTime="25.00" waitingCount="1" stopTime="0.00" timeLoss="40.04" rerouteNo="0" devices="tripinfo_22" vType="DEFAULT_VEHTYPE" speedFactor="1.16" vaporized=""/>
    <tripinfo id="65" depart="65.00" departLane="-626668696#1_0" departPos="5.10" departSpeed="0.00" departDelay="0.00" arrival="123.00" arrivalLane="44864462#2_0" arrivalPos="6.44" arrivalSpeed="14.69" duration="58.00" routeLength="557.66" waitingTime="5.00" waitingCount="1" stopTime="0.00" timeLoss="20.97" rerouteNo="0" devices="tripinfo_65" vType="DEFAULT_VEHTYPE" speedFactor="1.12" vaporized=""/>
    <tripinfo id="38" depart="38.00" departLane="17045818_0" departPos="5.10" departSpeed="0.00" departDelay="0.00" arrival="126.00" arrivalLane="403892253#0_0" arrivalPos="67.39" arrivalSpeed="12.97" duration="88.00" routeLength="989.04" waitingTime="0.00" waitingCount="0" stopTime="0.00" timeLoss="15.87" rerouteNo="0" devices="tripinfo_38" vType="DEFAULT_VEHTYPE" speedFactor="1.02" vaporized=""/>
    <tripinfo id="87" depart="87.00" departLane="-31544817#3_0" departPos="5.10" departSpeed="0.00" departDelay="0.00" arrival="126.00" arrivalLane="4082014#2_0" arrivalPos="59.83" arrivalSpeed="13.65" duration="39.00" routeLength="317.34" waitingTime="0.00" waitingCount="0" stopTime="0.00" timeLoss="12.45" rerouteNo="0" devices="tripinfo_87" vType="DEFAULT_VEHTYPE" speedFactor="1.00" vaporized=""/>
    <tripinfo id="19" depart="19.00" departLane="51498241#2_1" departPos="5.10" departSpeed="0.00" departDelay="0.00" arrival="127.00" arrivalLane="-642913230#6_3" arrivalPos="4.25" arrivalSpeed="4.99" duration="108.00" routeLength="823.11" waitingTime="18.00" waitingCount="2" stopTime="0.00" timeLoss="38.49" rerouteNo="0" devices="tripinfo_19" vType="DEFAULT_VEHTYPE" speedFactor="0.88" vaporized=""/>
    <tripinfo id="37" depart="37.00" departLane="4293992#0_0" departPos="5.10" departSpeed="0.00" departDelay="0.00" arrival="131.00" arrivalLane="-626668696#2_2" arrivalPos="8.78" arrivalSpeed="12.73" duration="94.00" routeLength="870.05" waitingTime="27.00" waitingCount="1" stopTime="0.00" timeLoss="49.49" rerouteNo="0" devices="tripinfo_37" vType="DEFAULT_VEHTYPE" speedFactor="0.99" vaporized=""/>
    <tripinfo id="62" depart="62.00" departLane="26588610#0_0" departPos="5.10" departSpeed="0.00" departDelay="0.00" arrival="131.00" arrivalLane="70187668#2_0" arrivalPos="3.62" arrivalSpeed="14.16" duration="69.00" routeLength="754.83" waitingTime="0.00" waitingCount="0" stopTime="0.00" timeLoss="12.63" rerouteNo="0" devices="tripinfo_62" vType="DEFAULT_VEHTYPE" speedFactor="1.02" vaporized=""/>
    <tripinfo id="26" depart="26.00" departLane="-4293992#15_0" departPos="5.10" departSpeed="0.00" departDelay="0.00" arrival="138.00" arrivalLane="-83724071#2_0" arrivalPos="13.66" arrivalSpeed="6.74" duration="112.00" routeLength="1253.56" waitingTime="0.00" waitingCount="0" stopTime="0.00" timeLoss="30.46" rerouteNo="0" devices="tripinfo_26" vType="DEFAULT_VEHTYPE" speedFactor="0.89" vaporized=""/>
    <tripinfo id="33" depart="33.00" departLane="-365158938#1_0" departPos="5.10" departSpeed="0.00" departDelay="0.00" arrival="139.00" arrivalLane="44864462#0_0" arrivalPos="32.72" arrivalSpeed="13.18" duration="106.00" routeLength="1063.62" waitingTime="24.00" waitingCount="1" stopTime="0.00" timeLoss="46.98" rerouteNo="0" devices="tripinfo_33" vType="DEFAULT_VEHTYPE" speedFactor="1.18" vaporized=""/>
    <tripinfo id="28" depart="28.00" departLane="185537045#1_0" departPos="5.10" departSpeed="0.00" departDelay="0.00" arrival="141.00" arrivalLane="-41872851#2_0" arrivalPos="42.79" arrivalSpeed="11.67" duration="113.00" routeLength="721.52" waitingTime="0.00" waitingCount="0" stopTime="30.00" timeLoss="19.09" rerouteNo="2" devices="tripinfo_28" vType="DEFAULT_VEHTYPE" speedFactor="0.87" vaporized=""/>
    <tripinfo id="2" depart="2.00" departLane="-25034670_0" departPos="5.10" departSpeed="0.00" departDelay="0.00" arrival="144.00" arrivalLane="23819963#3_0" arrivalPos="113.67" arrivalSpeed="13.13" duration="142.00" routeLength="1410.03" waitingTime="3.00" waitingCount="1" stopTime="0.00" timeLoss="28.15" rerouteNo="0" devices="tripinfo_2" vType="DEFAULT_VEHTYPE" speedFactor="1.01" vaporized=""/>
    <tripinfo id="31" depart="31.00" departLane="161357555#7_0" departPos="5.10" departSpeed="0.00" departDelay="0.00" arrival="146.00" arrivalLane="314456037_1" arrivalPos="14.04" arrivalSpeed="15.03" duration="115.00" routeLength="1042.48" waitingTime="28.00" waitingCount="1" stopTime="0.00" timeLoss="55.38" rerouteNo="0" devices="tripinfo_31" vType="DEFAULT_VEHTYPE" speedFactor="1.13" vaporized=""/>
    <tripinfo id="4" depart="4.00" departLane="566475377#0_0" departPos="5.10" departSpeed="0.00" departDelay="0.00" arrival="152.00" arrivalLane="24911264#0_0" arrivalPos="31.20" arrivalSpeed="13.04" duration="148.00" routeLength="959.43" waitingTime="58.00" waitingCount="2" stopTime="0.00" timeLoss="82.43" rerouteNo="0" devices="tripinfo_4" vType="DEFAULT_VEHTYPE" speedFactor="1.03" vaporized=""/>
    <tripinfo id="98" depart="98.00" departLane="566475379#1_0" departPos="5.10" departSpeed="0.00" departDelay="0.00" arrival="154.00" arrivalLane="-637864469_0" arrivalPos="0.17" arrivalSpeed="2.32" duration="56.00" routeLength="483.13" waitingTime="0.00" waitingCount="0" stopTime="0.00" timeLoss="12.97" rerouteNo="0" devices="tripinfo_98" vType="DEFAULT_VEHTYPE" speedFactor="0.89" vaporized=""/>
    <tripinfo id="94" depart="94.00" departLane="24944197#1_0" departPos="5.10" departSpeed="0.00" departDelay="0.00" arrival="155.00" arrivalLane="4444157#2_0" arrivalPos="39.92" arrivalSpeed="13.94" duration="61.00" routeLength="846.09" waitingTime="0.00" waitingCount="0" stopTime="0.00" timeLoss="12.90" rerouteNo="0" devices="tripinfo_94" vType="DEFAULT_VEHTYPE" speedFactor="1.04" vaporized=""/>
    <tripinfo id="111" depart="111.00" departLane="31544813#0_1" departPos="5.10" departSpeed="0.00" departDelay="0.00" arrival="158.00" arrivalLane="566475380#0_0" arrivalPos="75.75" arrivalSpeed="11.61" duration="47.00" routeLength="435.19" waitingTime="0.00" waitingCount="0" stopTime="0.00" timeLoss="10.26" rerouteNo="0" devices="tripinfo_111" vType="DEFAULT_VEHTYPE" speedFactor="0.89" vaporized=""/>
    <tripinfo id="119" depart="119.00" departLane="4294005#3_0" departPos="5.10" departSpeed="0.00" departDelay="0.00" arrival="158.00" arrivalLane="-24654957#1_0" arrivalPos="29.73" arrivalSpeed="14.14" duration="39.00" routeLength="352.80" waitingTime="0.00" waitingCount="0" stopTime="0.00" timeLoss="9.50" rerouteNo="0" devices="tripinfo_119" vType="DEFAULT_VEHTYPE" speedFactor="1.10" vaporized=""/>
    <tripinfo id="8" depart="8.00" departLane="28228767#1_0" departPos="0.20" departSpeed="0.00" departDelay="0.00" arrival="162.00" arrivalLane="4942434_0" arrivalPos="141.39" arrivalSpeed="12.20" duration="154.00" routeLength="1254.75" waitingTime="36.00" waitingCount="3" stopTime="0.00" timeLoss="72.73" rerouteNo="0" devices="tripinfo_8" vType="DEFAULT_VEHTYPE" speedFactor="0.89" vaporized=""/>
    <tripinfo id="44" depart="44.00" departLane="4039896#2_0" departPos="5.10" departSpeed="0.00" departDelay="0.00" arrival="164.00" arrivalLane="24915257_0" arrivalPos="17.56" arrivalSpeed="8.58" duration="120.00" routeLength="874.75" waitingTime="32.00" waitingCount="1" stopTime="0.00" timeLoss="51.05" rerouteNo="0" devices="tripinfo_44" vType="DEFAULT_VEHTYPE" speedFactor="0.96" vaporized=""/>
    <tripinfo id="49" depart="49.00" departLane="270569690#1_0" departPos="5.10" departSpeed="0.00" departDelay="0.00" arrival="164.00" arrivalLane="4444157#5_0" arrivalPos="36.17" arrivalSpeed="14.14" duration="115.00" routeLength="1326.14" waitingTime="10.00" waitingCount="1" stopTime="0.00" timeLoss="40.83" rerouteNo="0" devices="tripinfo_49" vType="DEFAULT_VEHTYPE" speedFactor="1.09" vaporized=""/>
    <tripinfo id="146" depart="146.00" departLane="-24911190#1_0" departPos="0.15" departSpeed="0.00" departDelay="0.00" arrival="164.00" arrivalLane="-24027319#1_1" arrivalPos="4.61" arrivalSpeed="5.28" duration="18.00" routeLength="116.67" waitingTime="0.00" waitingCount="0" stopTime="0.00" timeLoss="7.53" rerouteNo="0" devices="tripinfo_146" vType="DEFAULT_VEHTYPE" speedFactor="1.00" vaporized=""/>
    <tripinfo id="25" depart="25.00" departLane="-161357555#1_0" departPos="0.20" departSpeed="0.00" departDelay="0.00" arrival="165.00" arrivalLane="24931206#1_1" arrivalPos="39.20" arrivalSpeed="12.50" duration="140.00" routeLength="949.21" waitingTime="44.00" waitingCount="2" stopTime="0.00" timeLoss="69.38" rerouteNo="0" devices="tripinfo_25" vType="DEFAULT_VEHTYPE" speedFactor="0.98" vaporized=""/>
    <tripinfo id="41" depart="41.00" departLane="-71505096#5_0" departPos="5.10" departSpeed="0.00" departDelay="0.00" arrival="166.00" arrivalLane="4294007#5_0" arrivalPos="0.20" arrivalSpeed="8.49" duration="125.00" routeLength="1335.09" waitingTime="2.00" waitingCount="1" stopTime="0.00" timeLoss="27.93" rerouteNo="0" devices="tripinfo_41" vType="DEFAULT_VEHTYPE" speedFactor="1.10" vaporized=""/>
    <tripinfo id="45" depart="45.00" departLane="642910715#3_0" departPos="5.10" departSpeed="0.00" departDelay="0.00" arrival="166.00" arrivalLane="31544817#10_1" arrivalPos="1.70" arrivalSpeed="5.45" duration="121.00" routeLength="904.90" waitingTime="40.00" waitingCount="1" stopTime="0.00" timeLoss="62.25" rerouteNo="0" devices="tripinfo_45" vType="DEFAULT_VEHTYPE" speedFactor="1.09" vaporized=""/>
    <tripinfo id="12" depart="12.00" departLane="564199960#5_0" departPos="2.00" departSpeed="0.00" departDelay="0.00" arrival="168.00" arrivalLane="-161357555#6_0" arrivalPos="110.51" arrivalSpeed="21.34" duration="156.00" routeLength="1197.75" waitingTime="45.00" waitingCount="2" stopTime="0.00" timeLoss="78.90" rerouteNo="0" devices="tripinfo_12" vType="DEFAULT_VEHTYPE" speedFactor="1.03" vaporized=""/>
    <tripinfo id="100" depart="100.00" departLane="24911231#1_0" departPos="5.10" departSpeed="0.00" departDelay="0.00" arrival="168.00" arrivalLane="24911190#1_1" arrivalPos="0.20" arrivalSpeed="3.55" duration="68.00" routeLength="720.89" waitingTime="0.00" waitingCount="0" stopTime="0.00" timeLoss="14.16" rerouteNo="0" devices="tripinfo_100" vType="DEFAULT_VEHTYPE" speedFactor="0.92" vaporized=""/>
    <tripinfo id="113" depart="113.00" departLane="488561496_0" departPos="5.10" departSpeed="0.00" departDelay="0.00" arrival="168.00" arrivalLane="24027250#4_0" arrivalPos="136.05" arrivalSpeed="13.85" duration="55.00" routeLength="606.23" waitingTime="0.00" waitingCount="0" stopTime="0.00" timeLoss="12.89" rerouteNo="0" devices="tripinfo_113" vType="DEFAULT_VEHTYPE" speedFactor="1.01" vaporized=""/>
    <tripinfo id="39" depart="39.00" departLane="27245953_0" departPos="0.20" departSpeed="0.00" departDelay="0.00" arrival="172.00" arrivalLane="-4472299#1_0" arrivalPos="0.20" arrivalSpeed="3.22" duration="133.00" routeLength="833.04" waitingTime="48.00" waitingCount="2" stopTime="0.00" timeLoss="69.33" rerouteNo="0" devices="tripinfo_39" vType="DEFAULT_VEHTYPE" speedFactor="0.97" vaporized=""/>
    <tripinfo id="110" depart="110.00" departLane="-161357555#2_0" departPos="0.20" departSpeed="0.00" departDelay="0.00" arrival="172.00" arrivalLane="569385773_1" arrivalPos="3.40" arrivalSpeed="5.00" duration="62.00" routeLength="348.81" waitingTime="26.00" waitingCount="2" stopTime="0.00" timeLoss="44.13" rerouteNo="0" devices="tripinfo_110" vType="DEFAULT_VEHTYPE" speedFactor="0.95" vaporized=""/>
    <tripinfo id="60" depart="60.00" departLane="190627543_0" departPos="5.10" departSpeed="0.00" departDelay="0.00" arrival="176.00" arrivalLane="-4293992#10_0" arrivalPos="3.67" arrivalSpeed="19.95" duration="116.00" routeLength="871.71" waitingTime="30.00" waitingCount="2" stopTime="0.00" timeLoss="51.68" rerouteNo="0" devices="tripinfo_60" vType="DEFAULT_VEHTYPE" speedFactor="0.90" vaporized=""/>
    <tripinfo id="3" depart="3.00" departLane="4293940#1_0" departPos="5.10" departSpeed="0.00" departDelay="0.00" arrival="184.00" arrivalLane="565522607#0_0" arrivalPos="4.07" arrivalSpeed="8.23" duration="181.00" routeLength="1648.23" waitingTime="28.00" waitingCount="3" stopTime="0.00" timeLoss="67.66" rerouteNo="0" devices="tripinfo_3" vType="DEFAULT_VEHTYPE" speedFactor="1.08" vaporized=""/>
    <tripinfo id="163" depart="163.00" departLane="69325369#6_0" departPos="5.10" departSpeed="0.00" departDelay="0.00" arrival="184.00" arrivalLane="40795060#0_0" arrivalPos="58.91" arrivalSpeed="14.80" duration="21.00" routeLength="202.42" waitingTime="0.00" waitingCount="0" stopTime="0.00" timeLoss="6.72" rerouteNo="0" devices="tripinfo_163" vType="DEFAULT_VEHTYPE" speedFactor="1.12" vaporized=""/>
    <tripinfo id="90" depart="90.00" departLane="-4293992#14_0" departPos="5.10" departSpeed="0.00" departDelay="0.00" arrival="185.00" arrivalLane="543476237#4_0" arrivalPos="30.12" arrivalSpeed="12.82" duration="95.00" routeLength="1035.77" waitingTime="0.00" waitingCount="0" stopTime="0.00" timeLoss="20.01" rerouteNo="0" devices="tripinfo_90" vType="DEFAULT_VEHTYPE" speedFactor="0.97" vaporized=""/>
    <tripinfo id="115" depart="115.00" departLane="642913230#8_0" departPos="0.24" departSpeed="0.00" departDelay="0.00" arrival="190.00" arrivalLane="4941948#5_0" arrivalPos="57.03" arrivalSpeed="14.55" duration="75.00" routeLength="524.01" waitingTime="18.00" waitingCount="1" stopTime="0.00" timeLoss="38.32" rerouteNo="0" devices="tripinfo_115" vType="DEFAULT_VEHTYPE" speedFactor="1.06" vaporized=""/>
    <tripinfo id="74" depart="74.00" departLane="4472353#0_0" departPos="5.10" departSpeed="0.00" departDelay="0.00" arrival="191.00" arrivalLane="-24792898#0_0" arrivalPos="114.10" arrivalSpeed="13.63" duration="117.00" routeLength="770.78" waitingTime="33.00" waitingCount="2" stopTime="0.00" timeLoss="59.48" rerouteNo="0" devices="tripinfo_74" vType="DEFAULT_VEHTYPE" speedFactor="1.02" vaporized=""/>
    <tripinfo id="0" depart="0.00" departLane="27245904#1_0" departPos="5.10" departSpeed="0.00" departDelay="0.00" arrival="192.00" arrivalLane="-70736941#1_1" arrivalPos="11.16" arrivalSpeed="6.88" duration="192.00" routeLength="1095.16" waitingTime="84.00" waitingCount="3" stopTime="0.00" timeLoss="119.51" rerouteNo="0" devices="tripinfo_0" vType="DEFAULT_VEHTYPE" speedFactor="1.06" vaporized=""/>
    <tripinfo id="59" depart="59.00" departLane="4082014#2_0" departPos="5.10" departSpeed="0.00" departDelay="0.00" arrival="197.00" arrivalLane="4472344#2_0" arrivalPos="9.97" arrivalSpeed="12.11" duration="138.00" routeLength="1446.86" waitingTime="0.00" waitingCount="0" stopTime="0.00" timeLoss="28.89" rerouteNo="0" devices="tripinfo_59" vType="DEFAULT_VEHTYPE" speedFactor="1.00" vaporized=""/>
    <tripinfo id="54" depart="54.00" departLane="488561490#1_0" departPos="1.08" departSpeed="0.00" departDelay="0.00" arrival="198.00" arrivalLane="642910715#1_2" arrivalPos="6.32" arrivalSpeed="9.01" duration="144.00" routeLength="1210.83" waitingTime="9.00" waitingCount="4" stopTime="0.00" timeLoss="44.37" rerouteNo="0" devices="tripinfo_54" vType="DEFAULT_VEHTYPE" speedFactor="0.85" vaporized=""/>
    <tripinfo id="169" depart="169.00" departLane="69114043#3_0" departPos="4.24" departSpeed="0.00" departDelay="0.00" arrival="199.00" arrivalLane="4293996#0_0" arrivalPos="0.20" arrivalSpeed="6.21" duration="30.00" routeLength="202.83" waitingTime="2.00" waitingCount="1" stopTime="0.00" timeLoss="14.48" rerouteNo="0" devices="tripinfo_169" vType="DEFAULT_VEHTYPE" speedFactor="1.08" vaporized=""/>
    <tripinfo id="95" depart="95.00" departLane="-642913230#6_0" departPos="4.25" departSpeed="0.00" departDelay="0.00" arrival="201.00" arrivalLane="-24027319#3_1" arrivalPos="1.96" arrivalSpeed="7.44" duration="106.00" routeLength="957.58" waitingTime="18.00" waitingCount="1" stopTime="0.00" timeLoss="35.91" rerouteNo="0" devices="tripinfo_95" vType="DEFAULT_VEHTYPE" speedFactor="1.01" vaporized=""/>
    <tripinfo id="102" depart="102.00" departLane="626668696#0_0" departPos="5.10" departSpeed="0.00" departDelay="0.00" arrival="202.00" arrivalLane="24911231#0_0" arrivalPos="11.33" arrivalSpeed="12.81" duration="100.00" routeLength="761.12" waitingTime="26.00" waitingCount="1" stopTime="0.00" timeLoss="48.31" rerouteNo="0" devices="tripinfo_102" vType="DEFAULT_VEHTYPE" speedFactor="1.06" vaporized=""/>
    <tripinfo id="71" depart="98.00" departLane="8413402#1_0" departPos="0.72" departSpeed="0.00" departDelay="27.00" arrival="204.00" arrivalLane="-314456033#2_1" arrivalPos="49.97" arrivalSpeed="12.30" duration="106.00" routeLength="1017.95" waitingTime="2.00" waitingCount="1" stopTime="0.00" timeLoss="22.58" rerouteNo="0" devices="tripinfo_71" vType="DEFAULT_VEHTYPE" speedFactor="0.91" vaporized=""/>
    <tripinfo id="46" depart="46.00" departLane="26589107#0_0" departPos="5.10" departSpeed="0.00" departDelay="0.00" arrival="206.00" arrivalLane="4082043#4_0" arrivalPos="117.51" arrivalSpeed="13.46" duration="160.00" routeLength="1435.81" waitingTime="29.00" waitingCount="2" stopTime="0.00" timeLoss="58.68" rerouteNo="0" devices="tripinfo_46" vType="DEFAULT_VEHTYPE" speedFactor="1.04" vaporized=""/>
    <tripinfo id="11" depart="11.00" departLane="4082016_0" departPos="5.10" departSpeed="0.00" departDelay="0.00" arrival="208.00" arrivalLane="69325369#6_0" arrivalPos="74.22" arrivalSpeed="14.09" duration="197.00" routeLength="901.98" waitingTime="101.00" waitingCount="3" stopTime="0.00" timeLoss="136.01" rerouteNo="0" devices="tripinfo_11" vType="DEFAULT_VEHTYPE" speedFactor="1.09" vaporized=""/>
    <tripinfo id="64" depart="64.00" departLane="-553772532_1" departPos="5.10" departSpeed="0.00" departDelay="0.00" arrival="208.00" arrivalLane="24944224_0" arrivalPos="83.24" arrivalSpeed="13.98" duration="144.00" routeLength="607.09" waitingTime="80.00" waitingCount="3" stopTime="0.00" timeLoss="113.13" rerouteNo="0" devices="tripinfo_64" vType="DEFAULT_VEHTYPE" speedFactor="1.08" vaporized=""/>
    <tripinfo id="144" depart="147.00" departLane="4444157#3_0" departPos="5.10" departSpeed="0.00" departDelay="3.00" arrival="208.00" arrivalLane="630455864#2_2" arrivalPos="132.72" arrivalSpeed="14.87" duration="61.00" routeLength="651.49" waitingTime="0.00" waitingCount="0" stopTime="0.00" timeLoss="16.54" rerouteNo="0" devices="tripinfo_144" vType="DEFAULT_VEHTYPE" speedFactor="1.12" vaporized=""/>
    <tripinfo id="148" depart="148.00" departLane="365158944#3_0" departPos="5.10" departSpeed="0.00" departDelay="0.00" arrival="209.00" arrivalLane="4294035_0" arrivalPos="3.00" arrivalSpeed="7.96" duration="61.00" routeLength="465.45" waitingTime="14.00" waitingCount="1" stopTime="0.00" timeLoss="30.55" rerouteNo="0" devices="tripinfo_148" vType="DEFAULT_VEHTYPE" speedFactor="1.11" vaporized=""/>
    <tripinfo id="6" depart="6.00" departLane="69325369#3_0" departPos="5.10" departSpeed="0.00" departDelay="0.00" arrival="213.00" arrivalLane="4472335#1_0" arrivalPos="86.32" arrivalSpeed="10.39" duration="207.00" routeLength="1455.56" waitingTime="58.00" waitingCount="2" stopTime="0.00" timeLoss="98.49" rerouteNo="0" devices="tripinfo_6" vType="DEFAULT_VEHTYPE" speedFactor="0.83" vaporized=""/>
    <tripinfo id="81" depart="81.00" departLane="4450686#1_0" departPos="1.21" departSpeed="0.00" departDelay="0.00" arrival="213.00" arrivalLane="4293992#17_0" arrivalPos="0.20" arrivalSpeed="3.16" duration="132.00" routeLength="1112.21" waitingTime="23.00" waitingCount="2" stopTime="0.00" timeLoss="51.26" rerouteNo="0" devices="tripinfo_81" vType="DEFAULT_VEHTYPE" speedFactor="1.03" vaporized=""/>
    <tripinfo id="114" depart="114.00" departLane="25034670_0" departPos="5.10" departSpeed="0.00" departDelay="0.00" arrival="214.00" arrivalLane="24931206#1_1" arrivalPos="39.20" arrivalSpeed="13.14" duration="100.00" routeLength="971.13" waitingTime="2.00" waitingCount="1" stopTime="0.00" timeLoss="25.42" rerouteNo="0" devices="tripinfo_114" vType="DEFAULT_VEHTYPE" speedFactor="1.03" vaporized=""/>
    <tripinfo id="40" depart="40.00" departLane="-31544800#0_0" departPos="5.10" departSpeed="0.00" departDelay="0.00" arrival="215.00" arrivalLane="27281287#0_0" arrivalPos="129.46" arrivalSpeed="11.39" duration="175.00" routeLength="1521.08" waitingTime="50.00" waitingCount="2" stopTime="0.00" timeLoss="95.49" rerouteNo="0" devices="tripinfo_40" vType="DEFAULT_VEHTYPE" speedFactor="1.18" vaporized=""/>
    <tripinfo id="42" depart="42.00" departLane="270569690#1_0" departPos="5.10" departSpeed="0.00" departDelay="0.00" arrival="219.00" arrivalLane="-4039896#3_0" arrivalPos="59.54" arrivalSpeed="12.21" duration="177.00" routeLength="1629.23" waitingTime="26.00" waitingCount="2" stopTime="0.00" timeLoss="52.80" rerouteNo="0" devices="tripinfo_42" vType="DEFAULT_VEHTYPE" speedFactor="0.90" vaporized=""/>
    <tripinfo id="164" depart="164.00" departLane="69114043#4_0" departPos="0.20" departSpeed="0.00" departDelay="0.00" arrival="219.00" arrivalLane="314456033#1_1" arrivalPos="2.61" arrivalSpeed="8.17" duration="55.00" routeLength="551.15" waitingTime="2.00" waitingCount="1" stopTime="0.00" timeLoss="19.61" rerouteNo="0" devices="tripinfo_164" vType="DEFAULT_VEHTYPE" speedFactor="1.18" vaporized=""/>
    <tripinfo id="57" depart="57.00" departLane="4444185#0_0" departPos="5.10" departSpeed="0.00" departDelay="0.00" arrival="220.00" arrivalLane="4293948_0" arrivalPos="193.97" arrivalSpeed="15.12" duration="163.00" routeLength="1418.66" waitingTime="33.00" waitingCount="2" stopTime="0.00" timeLoss="65.63" rerouteNo="0" devices="tripinfo_57" vType="DEFAULT_VEHTYPE" speedFactor="1.10" vaporized=""/>
    <tripinfo id="126" depart="126.00" departLane="-642913230#5_0" departPos="2.74" departSpeed="0.00" departDelay="0.00" arrival="223.00" arrivalLane="4293992#17_0" arrivalPos="0.20" arrivalSpeed="3.41" duration="97.00" routeLength="491.30" waitingTime="47.00" waitingCount="2" stopTime="0.00" timeLoss="62.00" rerouteNo="0" devices="tripinfo_126" vType="DEFAULT_VEHTYPE" speedFactor="1.07" vaporized=""/>
    <tripinfo id="75" depart="75.00" departLane="365158944#5_0" departPos="0.10" departSpeed="0.00" departDelay="0.00" arrival="224.00" arrivalLane="161357555#3_0" arrivalPos="35.97" arrivalSpeed="19.20" duration="149.00" routeLength="1305.59" waitingTime="38.00" waitingCount="1" stopTime="0.00" timeLoss="65.83" rerouteNo="0" devices="tripinfo_75" vType="DEFAULT_VEHTYPE" speedFactor="1.02" vaporized=""/>
    <tripinfo id="72" depart="76.00" departLane="71505096#0_1" departPos="5.10" departSpeed="0.00" departDelay="4.00" arrival="229.00" arrivalLane="333339527_0" arrivalPos="22.36" arrivalSpeed="12.01" duration="153.00" routeLength="1226.08" waitingTime="24.00" waitingCount="2" stopTime="0.00" timeLoss="70.00" rerouteNo="0" devices="tripinfo_72" vType="DEFAULT_VEHTYPE" speedFactor="0.91" vaporized=""/>
    <tripinfo id="36" depart="36.00" departLane="5096930#2_0" departPos="5.10" departSpeed="0.00" departDelay="0.00" arrival="230.00" arrivalLane="626668696#3_0" arrivalPos="53.74" arrivalSpeed="16.09" duration="194.00" routeLength="1153.65" waitingTime="82.00" waitingCount="3" stopTime="0.00" timeLoss="121.70" rerouteNo="0" devices="tripinfo_36" vType="DEFAULT_VEHTYPE" speedFactor="1.17" vaporized=""/>
    <tripinfo id="70" depart="70.00" departLane="-71505096#0_0" departPos="5.10" departSpeed="0.00" departDelay="0.00" arrival="230.00" arrivalLane="68806765_0" arrivalPos="318.44" arrivalSpeed="11.62" duration="160.00" routeLength="1198.62" waitingTime="39.00" waitingCount="2" stopTime="0.00" timeLoss="75.49" rerouteNo="0" devices="tripinfo_70" vType="DEFAULT_VEHTYPE" speedFactor="0.88" vaporized=""/>
    <tripinfo id="48" depart="48.00" departLane="-24841340_0" departPos="0.20" departSpeed="0.00" departDelay="0.00" arrival="231.00" arrivalLane="24911219#0_1" arrivalPos="6.87" arrivalSpeed="11.63" duration="183.00" routeLength="1036.69" waitingTime="74.00" waitingCount="3" stopTime="0.00" timeLoss="110.38" rerouteNo="0" devices="tripinfo_48" vType="DEFAULT_VEHTYPE" speedFactor="1.04" vaporized=""/>
    <tripinfo id="154" depart="154.00" departLane="4294000#1_0" departPos="5.10" departSpeed="0.00" departDelay="0.00" arrival="231.00" arrivalLane="642901742#2_2" arrivalPos="47.75" arrivalSpeed="11.16" duration="77.00" routeLength="760.52" waitingTime="0.00" waitingCount="0" stopTime="0.00" timeLoss="16.94" rerouteNo="0" devices="tripinfo_154" vType="DEFAULT_VEHTYPE" speedFactor="0.89" vaporized=""/>
    <tripinfo id="10" depart="10.00" departLane="-83724071#2_0" departPos="5.10" departSpeed="0.00" departDelay="0.00" arrival="233.00" arrivalLane="488561499#1_0" arrivalPos="2.78" arrivalSpeed="13.84" duration="223.00" routeLength="1709.72" waitingTime="53.00" waitingCount="3" stopTime="0.00" timeLoss="100.59" rerouteNo="0" devices="tripinfo_10" vType="DEFAULT_VEHTYPE" speedFactor="0.86" vaporized=""/>
    <tripinfo id="132" depart="132.00" departLane="51498241#1_1" departPos="5.10" departSpeed="0.00" departDelay="0.00" arrival="233.00" arrivalLane="566475374#0_0" arrivalPos="1.85" arrivalSpeed="15.50" duration="101.00" routeLength="376.93" waitingTime="56.00" waitingCount="2" stopTime="0.00" timeLoss="74.80" rerouteNo="0" devices="tripinfo_132" vType="DEFAULT_VEHTYPE" speedFactor="1.15" vaporized=""/>